/*--------------------------------*- C++ -*----------------------------------*\
|       o          |                                                          |
|    o     o       | HELYX-OS                                                  |
|   o   O   o      | Version: v2.4.0                                           |
|    o     o       | Web:     http://www.engys.com                            |
|       o          |                                                          |
\*---------------------------------------------------------------------------*/
FoamFile
{
    version 2.0;
    format ascii;
    class volVectorField;
    location "0";
    object U;
}
dimensions [ 0 1 -1 0 0 0 0 ];
internalField uniform (0.0 0.0 0.0);
boundaryField
{

    //- Set patchGroups for constraint patches
    #includeEtc "caseDicts/setConstraintTypes"

    body
    {
        type fixedValue;
        value uniform ( 0 0 0);
    }

    inlet
    {
        type surfaceNormalFixedValue;
        value uniform ( 0.0 0.0 0.0 );
        refValue uniform -@@inletVelocity@@;
    }

    outlet
    {
        type zeroGradient;
        value uniform ( 0.0 0.0 0.0 );
    }

}
